-0.5 	-1 	0.5 	2178.67
-0.492188 	-1 	0.5 	2176.92
-0.484375 	-1 	0.5 	2175.53
-0.476562 	-1 	0.5 	2173.44
-0.46875 	-1 	0.5 	2171.25
-0.460938 	-1 	0.5 	2168.22
-0.453125 	-1 	0.5 	2165.2
-0.445312 	-1 	0.5 	2162.18
-0.4375 	-1 	0.5 	2159.16
-0.429688 	-1 	0.5 	2156.35
-0.421875 	-1 	0.5 	2153.31
-0.414062 	-1 	0.5 	2150.57
-0.40625 	-1 	0.5 	2147.63
-0.398438 	-1 	0.5 	2144.6
-0.390625 	-1 	0.5 	2141.48
-0.382812 	-1 	0.5 	2137.73
-0.375 	-1 	0.5 	2134.14
-0.367188 	-1 	0.5 	2131.91
-0.359375 	-1 	0.5 	2128.57
-0.351562 	-1 	0.5 	2124.87
-0.34375 	-1 	0.5 	2121.15
-0.335938 	-1 	0.5 	2117.42
-0.328125 	-1 	0.5 	2114.13
-0.320312 	-1 	0.5 	2110.88
-0.3125 	-1 	0.5 	2107.61
-0.304688 	-1 	0.5 	2104.13
-0.296875 	-1 	0.5 	2100.56
-0.289062 	-1 	0.5 	2096.99
-0.28125 	-1 	0.5 	2093.36
-0.273438 	-1 	0.5 	2089.71
-0.265625 	-1 	0.5 	2085.62
-0.257812 	-1 	0.5 	2081.74
-0.25 	-1 	0.5 	2077.87
-0.242188 	-1 	0.5 	2074
-0.234375 	-1 	0.5 	2069.93
-0.226562 	-1 	0.5 	2065.74
-0.21875 	-1 	0.5 	2062.04
-0.210938 	-1 	0.5 	2058.3
-0.203125 	-1 	0.5 	2053.95
-0.195312 	-1 	0.5 	2049.61
-0.1875 	-1 	0.5 	2045.22
-0.179688 	-1 	0.5 	2040.82
-0.171875 	-1 	0.5 	2036.27
-0.164062 	-1 	0.5 	2031.48
-0.15625 	-1 	0.5 	2026.71
-0.148438 	-1 	0.5 	2022.32
-0.140625 	-1 	0.5 	2017.93
-0.132812 	-1 	0.5 	2013.24
-0.125 	-1 	0.5 	2008.87
-0.117188 	-1 	0.5 	2004.28
-0.109375 	-1 	0.5 	1999.53
-0.101562 	-1 	0.5 	1994.9
-0.09375 	-1 	0.5 	1990.27
-0.085938 	-1 	0.5 	1985.15
-0.078125 	-1 	0.5 	1979.99
-0.070312 	-1 	0.5 	1975.3
-0.0625 	-1 	0.5 	1970.23
-0.054688 	-1 	0.5 	1964.97
-0.046875 	-1 	0.5 	1959.71
-0.039062 	-1 	0.5 	1954.52
-0.03125 	-1 	0.5 	1949.64
-0.023438 	-1 	0.5 	1944.7
-0.015625 	-1 	0.5 	1939.52
-0.007812 	-1 	0.5 	1934.35
0 	-1 	0.5 	1929.17
0.007812 	-1 	0.5 	1923.79
0.015625 	-1 	0.5 	1918.18
0.023438 	-1 	0.5 	1912.77
0.03125 	-1 	0.5 	1907.47
0.039062 	-1 	0.5 	1901.73
0.046875 	-1 	0.5 	1895.92
0.054688 	-1 	0.5 	1890.11
0.0625 	-1 	0.5 	1884.57
0.070312 	-1 	0.5 	1879.41
0.078125 	-1 	0.5 	1873.82
0.085938 	-1 	0.5 	1868.08
0.09375 	-1 	0.5 	1862.35
0.101562 	-1 	0.5 	1856.62
0.109375 	-1 	0.5 	1851.14
0.117188 	-1 	0.5 	1845.97
0.125 	-1 	0.5 	1839.31
0.132812 	-1 	0.5 	1832.96
0.140625 	-1 	0.5 	1827.94
0.148438 	-1 	0.5 	1825.08
0.15625 	-1 	0.5 	1821.02
0.164062 	-1 	0.5 	1814.01
0.171875 	-1 	0.5 	1807.28
0.179688 	-1 	0.5 	1801.26
0.1875 	-1 	0.5 	1795.61
0.195312 	-1 	0.5 	1789.54
0.203125 	-1 	0.5 	1784.48
0.210938 	-1 	0.5 	1779.42
0.21875 	-1 	0.5 	1774.43
0.226562 	-1 	0.5 	1766.65
0.234375 	-1 	0.5 	1759.79
0.242188 	-1 	0.5 	1752.93
0.25 	-1 	0.5 	1752.72
0.257812 	-1 	0.5 	1744.65
0.265625 	-1 	0.5 	1741.27
0.273438 	-1 	0.5 	1736.9
0.28125 	-1 	0.5 	1732.38
0.289062 	-1 	0.5 	1728.16
0.296875 	-1 	0.5 	1724.33
0.304688 	-1 	0.5 	1718.42
0.3125 	-1 	0.5 	1712.52
0.320312 	-1 	0.5 	1707.97
0.328125 	-1 	0.5 	1703.16
0.335938 	-1 	0.5 	1698.43
0.34375 	-1 	0.5 	1696.06
0.351562 	-1 	0.5 	1691.41
0.359375 	-1 	0.5 	1686.15
0.367188 	-1 	0.5 	1680.8
0.375 	-1 	0.5 	1682.7
0.382812 	-1 	0.5 	1675.19
0.390625 	-1 	0.5 	1668.28
0.398438 	-1 	0.5 	1663.91
0.40625 	-1 	0.5 	1657.53
0.414062 	-1 	0.5 	1651.7
0.421875 	-1 	0.5 	1649.2
0.429688 	-1 	0.5 	1649.65
0.4375 	-1 	0.5 	1646.25
0.445312 	-1 	0.5 	1645.76
0.453125 	-1 	0.5 	1642.94
0.460938 	-1 	0.5 	1638.86
0.46875 	-1 	0.5 	1634.78
0.476562 	-1 	0.5 	1628.79
0.484375 	-1 	0.5 	1629.21
0.492188 	-1 	0.5 	1627.86
0.5 	-1 	0.5 	1626.29
0.507812 	-1 	0.5 	1624.71
0.515625 	-1 	0.5 	1623.13
0.523438 	-1 	0.5 	1621.56
0.53125 	-1 	0.5 	1617.61
0.539062 	-1 	0.5 	1617
0.546875 	-1 	0.5 	1618.35
0.554688 	-1 	0.5 	1618.28
0.5625 	-1 	0.5 	1618.21
0.570312 	-1 	0.5 	1618.14
0.578125 	-1 	0.5 	1614.47
0.585938 	-1 	0.5 	1610.81
0.59375 	-1 	0.5 	1609.67
0.601562 	-1 	0.5 	1611.41
0.609375 	-1 	0.5 	1611.96
0.617188 	-1 	0.5 	1611.3
0.625 	-1 	0.5 	1612.78
0.632812 	-1 	0.5 	1614.57
0.640625 	-1 	0.5 	1616.03
0.648438 	-1 	0.5 	1617.49
0.65625 	-1 	0.5 	1618.95
0.664062 	-1 	0.5 	1620.47
0.671875 	-1 	0.5 	1622.55
0.679688 	-1 	0.5 	1624.61
0.6875 	-1 	0.5 	1626.66
0.695312 	-1 	0.5 	1628.14
0.703125 	-1 	0.5 	1628.53
0.710938 	-1 	0.5 	1628.74
0.71875 	-1 	0.5 	1634.21
0.726562 	-1 	0.5 	1636.98
0.734375 	-1 	0.5 	1639.74
0.742188 	-1 	0.5 	1643.25
0.75 	-1 	0.5 	1648.05
0.757812 	-1 	0.5 	1652.39
0.765625 	-1 	0.5 	1655.33
0.773438 	-1 	0.5 	1660.49
0.78125 	-1 	0.5 	1666.33
0.789062 	-1 	0.5 	1672.61
0.796875 	-1 	0.5 	1677.87
0.804688 	-1 	0.5 	1682.06
0.8125 	-1 	0.5 	1685.57
0.820312 	-1 	0.5 	1688.92
0.828125 	-1 	0.5 	1692.27
0.835938 	-1 	0.5 	1695.75
0.84375 	-1 	0.5 	1702.44
0.851562 	-1 	0.5 	1710.27
0.859375 	-1 	0.5 	1717.07
0.867188 	-1 	0.5 	1723.24
0.875 	-1 	0.5 	1729.4
0.882812 	-1 	0.5 	1735.59
0.890625 	-1 	0.5 	1741.9
0.898438 	-1 	0.5 	1748.25
0.90625 	-1 	0.5 	1754.37
0.914062 	-1 	0.5 	1761.16
0.921875 	-1 	0.5 	1767.97
0.929688 	-1 	0.5 	1774.79
0.9375 	-1 	0.5 	1782.02
0.945312 	-1 	0.5 	1791.22
0.953125 	-1 	0.5 	1798.92
0.960938 	-1 	0.5 	1804.96
0.96875 	-1 	0.5 	1811
0.976562 	-1 	0.5 	1818.12
0.984375 	-1 	0.5 	1825.65
0.992188 	-1 	0.5 	1833.7
1 	-1 	0.5 	1842.64
1.00781 	-1 	0.5 	1849.56
1.01562 	-1 	0.5 	1856.55
1.02344 	-1 	0.5 	1863.67
1.03125 	-1 	0.5 	1870.79
1.03906 	-1 	0.5 	1878.12
1.04688 	-1 	0.5 	1887.4
1.05469 	-1 	0.5 	1896
1.0625 	-1 	0.5 	1903.31
1.07031 	-1 	0.5 	1910.63
1.07812 	-1 	0.5 	1917.95
1.08594 	-1 	0.5 	1925.31
1.09375 	-1 	0.5 	1933.1
1.10156 	-1 	0.5 	1940.88
1.10938 	-1 	0.5 	1948.67
1.11719 	-1 	0.5 	1957.38
1.125 	-1 	0.5 	1964.7
1.13281 	-1 	0.5 	1971.36
1.14062 	-1 	0.5 	1980.92
1.14844 	-1 	0.5 	1988.11
1.15625 	-1 	0.5 	1994.61
1.16406 	-1 	0.5 	2001.52
1.17188 	-1 	0.5 	2008.06
1.17969 	-1 	0.5 	2013.87
1.1875 	-1 	0.5 	2021.44
1.19531 	-1 	0.5 	2029.36
1.20312 	-1 	0.5 	2035.27
1.21094 	-1 	0.5 	2043.06
1.21875 	-1 	0.5 	2050.37
1.22656 	-1 	0.5 	2057.66
1.23438 	-1 	0.5 	2064.71
1.24219 	-1 	0.5 	2071.6
1.25 	-1 	0.5 	2078.78
1.25781 	-1 	0.5 	2085.89
1.26562 	-1 	0.5 	2091.19
1.27344 	-1 	0.5 	2099.59
1.28125 	-1 	0.5 	2108.67
1.28906 	-1 	0.5 	2116.67
1.29688 	-1 	0.5 	2121.73
1.30469 	-1 	0.5 	2127.98
1.3125 	-1 	0.5 	2135.13
1.32031 	-1 	0.5 	2141.01
1.32812 	-1 	0.5 	2144.63
1.33594 	-1 	0.5 	2148.26
1.34375 	-1 	0.5 	2153.73
1.35156 	-1 	0.5 	2159.53
1.35938 	-1 	0.5 	2165.49
1.36719 	-1 	0.5 	2170.46
1.375 	-1 	0.5 	2175.49
1.38281 	-1 	0.5 	2180.86
1.39062 	-1 	0.5 	2185.59
1.39844 	-1 	0.5 	2188.9
1.40625 	-1 	0.5 	2194.47
1.41406 	-1 	0.5 	2201.46
1.42188 	-1 	0.5 	2208.54
1.42969 	-1 	0.5 	2215.77
1.4375 	-1 	0.5 	2219.5
1.44531 	-1 	0.5 	2224.29
1.45312 	-1 	0.5 	2228.49
1.46094 	-1 	0.5 	2232.03
1.46875 	-1 	0.5 	2235.58
1.47656 	-1 	0.5 	2239.13
1.48438 	-1 	0.5 	2242.92
1.49219 	-1 	0.5 	2247.03
-0.5 	-0.992188 	0.5 	2180.14
-0.492188 	-0.992188 	0.5 	2177.92
-0.484375 	-0.992188 	0.5 	2176.53
-0.476562 	-0.992188 	0.5 	2174.38
-0.46875 	-0.992188 	0.5 	2172.23
-0.460938 	-0.992188 	0.5 	2169.38
-0.453125 	-0.992188 	0.5 	2166.29
-0.445312 	-0.992188 	0.5 	2163.2
-0.4375 	-0.992188 	0.5 	2160.11
-0.429688 	-0.992188 	0.5 	2157.35
-0.421875 	-0.992188 	0.5 	2154.19
-0.414062 	-0.992188 	0.5 	2150.95
-0.40625 	-0.992188 	0.5 	2147.82
-0.398438 	-0.992188 	0.5 	2144.79
-0.390625 	-0.992188 	0.5 	2141.76
-0.382812 	-0.992188 	0.5 	2138.73
-0.375 	-0.992188 	0.5 	2135.32
-0.367188 	-0.992188 	0.5 	2132.36
-0.359375 	-0.992188 	0.5 	2128.89
-0.351562 	-0.992188 	0.5 	2125.16
-0.34375 	-0.992188 	0.5 	2121.43
-0.335938 	-0.992188 	0.5 	2117.72
-0.328125 	-0.992188 	0.5 	2114.48
-0.320312 	-0.992188 	0.5 	2111.23
-0.3125 	-0.992188 	0.5 	2107.97
-0.304688 	-0.992188 	0.5 	2104.62
-0.296875 	-0.992188 	0.5 	2100.97
-0.289062 	-0.992188 	0.5 	2097.32
-0.28125 	-0.992188 	0.5 	2094.02
-0.273438 	-0.992188 	0.5 	2089.97
-0.265625 	-0.992188 	0.5 	2086.64
-0.257812 	-0.992188 	0.5 	2081.97
-0.25 	-0.992188 	0.5 	2077.68
-0.242188 	-0.992188 	0.5 	2073.8
-0.234375 	-0.992188 	0.5 	2069.93
-0.226562 	-0.992188 	0.5 	2065.8
-0.21875 	-0.992188 	0.5 	2061.95
-0.210938 	-0.992188 	0.5 	2058.02
-0.203125 	-0.992188 	0.5 	2053.68
-0.195312 	-0.992188 	0.5 	2049.27
-0.1875 	-0.992188 	0.5 	2044.82
-0.179688 	-0.992188 	0.5 	2040.47
-0.171875 	-0.992188 	0.5 	2035.97
-0.164062 	-0.992188 	0.5 	2031.3
-0.15625 	-0.992188 	0.5 	2026.51
-0.148438 	-0.992188 	0.5 	2021.72
-0.140625 	-0.992188 	0.5 	2016.93
-0.132812 	-0.992188 	0.5 	2012.48
-0.125 	-0.992188 	0.5 	2007.96
-0.117188 	-0.992188 	0.5 	2003.26
-0.109375 	-0.992188 	0.5 	1998.63
-0.101562 	-0.992188 	0.5 	1994
-0.09375 	-0.992188 	0.5 	1989.28
-0.085938 	-0.992188 	0.5 	1983.97
-0.078125 	-0.992188 	0.5 	1978.72
-0.070312 	-0.992188 	0.5 	1974.03
-0.0625 	-0.992188 	0.5 	1969.25
-0.054688 	-0.992188 	0.5 	1963.95
-0.046875 	-0.992188 	0.5 	1958.65
-0.039062 	-0.992188 	0.5 	1953.35
-0.03125 	-0.992188 	0.5 	1948
-0.023438 	-0.992188 	0.5 	1942.41
-0.015625 	-0.992188 	0.5 	1937.22
-0.007812 	-0.992188 	0.5 	1932.03
0 	-0.992188 	0.5 	1926.84
0.007812 	-0.992188 	0.5 	1921.49
0.015625 	-0.992188 	0.5 	1915.89
0.023438 	-0.992188 	0.5 	1910.46
0.03125 	-0.992188 	0.5 	1905.16
0.039062 	-0.992188 	0.5 	1899.42
0.046875 	-0.992188 	0.5 	1893.62
0.054688 	-0.992188 	0.5 	1887.82
0.0625 	-0.992188 	0.5 	1882.16
0.070312 	-0.992188 	0.5 	1876.25
0.078125 	-0.992188 	0.5 	1870.19
0.085938 	-0.992188 	0.5 	1864.43
0.09375 	-0.992188 	0.5 	1858.68
0.101562 	-0.992188 	0.5 	1852.93
0.109375 	-0.992188 	0.5 	1847.64
0.117188 	-0.992188 	0.5 	1842.48
0.125 	-0.992188 	0.5 	1835.41
0.132812 	-0.992188 	0.5 	1828.38
0.140625 	-0.992188 	0.5 	1823.36
0.148438 	-0.992188 	0.5 	1818.69
0.15625 	-0.992188 	0.5 	1815.07
0.164062 	-0.992188 	0.5 	1808.1
0.171875 	-0.992188 	0.5 	1802.02
0.179688 	-0.992188 	0.5 	1796.06
0.1875 	-0.992188 	0.5 	1790.54
0.195312 	-0.992188 	0.5 	1784.48
0.203125 	-0.992188 	0.5 	1779.23
0.210938 	-0.992188 	0.5 	1774.49
0.21875 	-0.992188 	0.5 	1770.4
0.226562 	-0.992188 	0.5 	1762.4
0.234375 	-0.992188 	0.5 	1752.98
0.242188 	-0.992188 	0.5 	1748.15
0.25 	-0.992188 	0.5 	1747.67
0.257812 	-0.992188 	0.5 	1737.73
0.265625 	-0.992188 	0.5 	1733.5
0.273438 	-0.992188 	0.5 	1730.04
0.28125 	-0.992188 	0.5 	1725.49
0.289062 	-0.992188 	0.5 	1721.46
0.296875 	-0.992188 	0.5 	1716.13
0.304688 	-0.992188 	0.5 	1710.57
0.3125 	-0.992188 	0.5 	1705.57
0.320312 	-0.992188 	0.5 	1700.8
0.328125 	-0.992188 	0.5 	1696.29
0.335938 	-0.992188 	0.5 	1691.79
0.34375 	-0.992188 	0.5 	1689.2
0.351562 	-0.992188 	0.5 	1684.46
0.359375 	-0.992188 	0.5 	1679.26
0.367188 	-0.992188 	0.5 	1673.93
0.375 	-0.992188 	0.5 	1669.76
0.382812 	-0.992188 	0.5 	1664.66
0.390625 	-0.992188 	0.5 	1659.82
0.398438 	-0.992188 	0.5 	1655.63
0.40625 	-0.992188 	0.5 	1650
0.414062 	-0.992188 	0.5 	1642.84
0.421875 	-0.992188 	0.5 	1643.35
0.429688 	-0.992188 	0.5 	1641.32
0.4375 	-0.992188 	0.5 	1636.64
0.445312 	-0.992188 	0.5 	1635.36
0.453125 	-0.992188 	0.5 	1635.75
0.460938 	-0.992188 	0.5 	1629.22
0.46875 	-0.992188 	0.5 	1622.91
0.476562 	-0.992188 	0.5 	1619.51
0.484375 	-0.992188 	0.5 	1617.33
0.492188 	-0.992188 	0.5 	1618.14
0.5 	-0.992188 	0.5 	1620.51
0.507812 	-0.992188 	0.5 	1621.13
0.515625 	-0.992188 	0.5 	1615.96
0.523438 	-0.992188 	0.5 	1610.44
0.53125 	-0.992188 	0.5 	1607.75
0.539062 	-0.992188 	0.5 	1607.32
0.546875 	-0.992188 	0.5 	1604.74
0.554688 	-0.992188 	0.5 	1605.84
0.5625 	-0.992188 	0.5 	1607.42
0.570312 	-0.992188 	0.5 	1607.34
0.578125 	-0.992188 	0.5 	1603.23
0.585938 	-0.992188 	0.5 	1599.84
0.59375 	-0.992188 	0.5 	1597.89
0.601562 	-0.992188 	0.5 	1598.88
0.609375 	-0.992188 	0.5 	1600.61
0.617188 	-0.992188 	0.5 	1602.11
0.625 	-0.992188 	0.5 	1602.89
0.632812 	-0.992188 	0.5 	1604.35
0.640625 	-0.992188 	0.5 	1606.53
0.648438 	-0.992188 	0.5 	1608.72
0.65625 	-0.992188 	0.5 	1609.97
0.664062 	-0.992188 	0.5 	1607.86
0.671875 	-0.992188 	0.5 	1607.35
0.679688 	-0.992188 	0.5 	1610.26
0.6875 	-0.992188 	0.5 	1613.16
0.695312 	-0.992188 	0.5 	1616.07
0.703125 	-0.992188 	0.5 	1618.81
0.710938 	-0.992188 	0.5 	1621.18
0.71875 	-0.992188 	0.5 	1624.57
0.726562 	-0.992188 	0.5 	1627.96
0.734375 	-0.992188 	0.5 	1631.35
0.742188 	-0.992188 	0.5 	1634.74
0.75 	-0.992188 	0.5 	1638.87
0.757812 	-0.992188 	0.5 	1643.24
0.765625 	-0.992188 	0.5 	1647.14
0.773438 	-0.992188 	0.5 	1652.99
0.78125 	-0.992188 	0.5 	1658.83
0.789062 	-0.992188 	0.5 	1663.67
0.796875 	-0.992188 	0.5 	1668.5
0.804688 	-0.992188 	0.5 	1668.89
0.8125 	-0.992188 	0.5 	1671.17
0.820312 	-0.992188 	0.5 	1674.52
0.828125 	-0.992188 	0.5 	1680.92
0.835938 	-0.992188 	0.5 	1689.09
0.84375 	-0.992188 	0.5 	1692.79
0.851562 	-0.992188 	0.5 	1701.02
0.859375 	-0.992188 	0.5 	1709.15
0.867188 	-0.992188 	0.5 	1716.9
0.875 	-0.992188 	0.5 	1723.06
0.882812 	-0.992188 	0.5 	1729.22
0.890625 	-0.992188 	0.5 	1734.5
0.898438 	-0.992188 	0.5 	1740.74
0.90625 	-0.992188 	0.5 	1747.36
0.914062 	-0.992188 	0.5 	1754.5
0.921875 	-0.992188 	0.5 	1761.65
0.929688 	-0.992188 	0.5 	1768.8
0.9375 	-0.992188 	0.5 	1775.82
0.945312 	-0.992188 	0.5 	1782.86
0.953125 	-0.992188 	0.5 	1790.38
0.960938 	-0.992188 	0.5 	1797.91
0.96875 	-0.992188 	0.5 	1805.44
0.976562 	-0.992188 	0.5 	1812.83
0.984375 	-0.992188 	0.5 	1819.61
0.992188 	-0.992188 	0.5 	1829.07
1 	-0.992188 	0.5 	1837.82
1.00781 	-0.992188 	0.5 	1847.21
1.01562 	-0.992188 	0.5 	1854.12
1.02344 	-0.992188 	0.5 	1861.04
1.03125 	-0.992188 	0.5 	1867.95
1.03906 	-0.992188 	0.5 	1874.99
1.04688 	-0.992188 	0.5 	1883.03
1.05469 	-0.992188 	0.5 	1890.82
1.0625 	-0.992188 	0.5 	1899.01
1.07031 	-0.992188 	0.5 	1907.21
1.07812 	-0.992188 	0.5 	1914.98
1.08594 	-0.992188 	0.5 	1922.63
1.09375 	-0.992188 	0.5 	1931.4
1.10156 	-0.992188 	0.5 	1938.83
1.10938 	-0.992188 	0.5 	1946.63
1.11719 	-0.992188 	0.5 	1955.85
1.125 	-0.992188 	0.5 	1962.19
1.13281 	-0.992188 	0.5 	1968.02
1.14062 	-0.992188 	0.5 	1977.58
1.14844 	-0.992188 	0.5 	1987.14
1.15625 	-0.992188 	0.5 	1993.66
1.16406 	-0.992188 	0.5 	2000.49
1.17188 	-0.992188 	0.5 	2006.66
1.17969 	-0.992188 	0.5 	2013.26
1.1875 	-0.992188 	0.5 	2020.57
1.19531 	-0.992188 	0.5 	2027.89
1.20312 	-0.992188 	0.5 	2035.24
1.21094 	-0.992188 	0.5 	2042.61
1.21875 	-0.992188 	0.5 	2049.73
1.22656 	-0.992188 	0.5 	2056.85
1.23438 	-0.992188 	0.5 	2063.98
1.24219 	-0.992188 	0.5 	2071.1
1.25 	-0.992188 	0.5 	2078.01
1.25781 	-0.992188 	0.5 	2084.66
1.26562 	-0.992188 	0.5 	2092.7
1.27344 	-0.992188 	0.5 	2101.78
1.28125 	-0.992188 	0.5 	2110.86
1.28906 	-0.992188 	0.5 	2118.17
1.29688 	-0.992188 	0.5 	2123.23
1.30469 	-0.992188 	0.5 	2128.81
1.3125 	-0.992188 	0.5 	2135.97
1.32031 	-0.992188 	0.5 	2141.29
1.32812 	-0.992188 	0.5 	2144.92
1.33594 	-0.992188 	0.5 	2149.76
1.34375 	-0.992188 	0.5 	2155.32
1.35156 	-0.992188 	0.5 	2161.19
1.35938 	-0.992188 	0.5 	2167.2
1.36719 	-0.992188 	0.5 	2172.51
1.375 	-0.992188 	0.5 	2177.57
1.38281 	-0.992188 	0.5 	2182.94
1.39062 	-0.992188 	0.5 	2186.61
1.39844 	-0.992188 	0.5 	2189.93
1.40625 	-0.992188 	0.5 	2195.31
1.41406 	-0.992188 	0.5 	2202.3
1.42188 	-0.992188 	0.5 	2209.29
1.42969 	-0.992188 	0.5 	2216.41
1.4375 	-0.992188 	0.5 	2221.16
1.44531 	-0.992188 	0.5 	2225.61
1.45312 	-0.992188 	0.5 	2229.16
1.46094 	-0.992188 	0.5 	2232.71
1.46875 	-0.992188 	0.5 	2236.75
1.47656 	-0.992188 	0.5 	2240.87
1.48438 	-0.992188 	0.5 	2244.98
1.49219 	-0.992188 	0.5 	2249.15
-0.5 	-0.984375 	0.5 	2181.62
-0.492188 	-0.984375 	0.5 	2178.93
-0.484375 	-0.984375 	0.5 	2177.47
-0.476562 	-0.984375 	0.5 	2175.32
-0.46875 	-0.984375 	0.5 	2172.91
-0.460938 	-0.984375 	0.5 	2169.82
-0.453125 	-0.984375 	0.5 	2166.73
-0.445312 	-0.984375 	0.5 	2163.65
-0.4375 	-0.984375 	0.5 	2161.6
-0.429688 	-0.984375 	0.5 	2158.65
-0.421875 	-0.984375 	0.5 	2155.3
-0.414062 	-0.984375 	0.5 	2152.32
-0.40625 	-0.984375 	0.5 	2149.08
-0.398438 	-0.984375 	0.5 	2145.84
-0.390625 	-0.984375 	0.5 	2142.6
-0.382812 	-0.984375 	0.5 	2139.35
-0.375 	-0.984375 	0.5 	2136.11
-0.367188 	-0.984375 	0.5 	2132.87
-0.359375 	-0.984375 	0.5 	2129.25
-0.351562 	-0.984375 	0.5 	2125.61
-0.34375 	-0.984375 	0.5 	2121.97
-0.335938 	-0.984375 	0.5 	2118.32
-0.328125 	-0.984375 	0.5 	2114.82
-0.320312 	-0.984375 	0.5 	2111.58
-0.3125 	-0.984375 	0.5 	2108.32
-0.304688 	-0.984375 	0.5 	2104.93
-0.296875 	-0.984375 	0.5 	2101.28
-0.289062 	-0.984375 	0.5 	2097.89
-0.28125 	-0.984375 	0.5 	2095.1
-0.273438 	-0.984375 	0.5 	2090.49
-0.265625 	-0.984375 	0.5 	2086.5
-0.257812 	-0.984375 	0.5 	2083.4
-0.25 	-0.984375 	0.5 	2078.74
-0.242188 	-0.984375 	0.5 	2074.07
-0.234375 	-0.984375 	0.5 	2069.74
-0.226562 	-0.984375 	0.5 	2065.86
-0.21875 	-0.984375 	0.5 	2061.86
-0.210938 	-0.984375 	0.5 	2057.74
-0.203125 	-0.984375 	0.5 	2053.32
-0.195312 	-0.984375 	0.5 	2048.87
-0.1875 	-0.984375 	0.5 	2044.42
-0.179688 	-0.984375 	0.5 	2040.12
-0.171875 	-0.984375 	0.5 	2035.66
-0.164062 	-0.984375 	0.5 	2031.04
-0.15625 	-0.984375 	0.5 	2026.33
-0.148438 	-0.984375 	0.5 	2021.54
-0.140625 	-0.984375 	0.5 	2016.72
-0.132812 	-0.984375 	0.5 	2011.9
-0.125 	-0.984375 	0.5 	2006.84
-0.117188 	-0.984375 	0.5 	2001.99
-0.109375 	-0.984375 	0.5 	1997.28
-0.101562 	-0.984375 	0.5 	1992.57
-0.09375 	-0.984375 	0.5 	1987.86
-0.085938 	-0.984375 	0.5 	1982.78
-0.078125 	-0.984375 	0.5 	1977.46
-0.070312 	-0.984375 	0.5 	1972.76
-0.0625 	-0.984375 	0.5 	1967.73
-0.054688 	-0.984375 	0.5 	1962.43
-0.046875 	-0.984375 	0.5 	1957.13
-0.039062 	-0.984375 	0.5 	1952.05
-0.03125 	-0.984375 	0.5 	1946.35
-0.023438 	-0.984375 	0.5 	1941.34
-0.015625 	-0.984375 	0.5 	1935.34
-0.007812 	-0.984375 	0.5 	1929.45
0 	-0.984375 	0.5 	1924.26
0.007812 	-0.984375 	0.5 	1919.08
0.015625 	-0.984375 	0.5 	1913.59
0.023438 	-0.984375 	0.5 	1908.15
0.03125 	-0.984375 	0.5 	1902.64
0.039062 	-0.984375 	0.5 	1896.84
0.046875 	-0.984375 	0.5 	1891.08
0.054688 	-0.984375 	0.5 	1885.7
0.0625 	-0.984375 	0.5 	1879.8
0.070312 	-0.984375 	0.5 	1873.68
0.078125 	-0.984375 	0.5 	1867.96
0.085938 	-0.984375 	0.5 	1861.37
0.09375 	-0.984375 	0.5 	1855.49
0.101562 	-0.984375 	0.5 	1849.73
0.109375 	-0.984375 	0.5 	1844.15
0.117188 	-0.984375 	0.5 	1838.98
0.125 	-0.984375 	0.5 	1831.51
0.132812 	-0.984375 	0.5 	1825.28
0.140625 	-0.984375 	0.5 	1819.52
0.148438 	-0.984375 	0.5 	1813.76
0.15625 	-0.984375 	0.5 	1809.12
0.164062 	-0.984375 	0.5 	1802.86
0.171875 	-0.984375 	0.5 	1796.94
0.179688 	-0.984375 	0.5 	1791.03
0.1875 	-0.984375 	0.5 	1785.34
0.195312 	-0.984375 	0.5 	1779.53
0.203125 	-0.984375 	0.5 	1774.39
0.210938 	-0.984375 	0.5 	1770.27
0.21875 	-0.984375 	0.5 	1766.36
0.226562 	-0.984375 	0.5 	1759.03
0.234375 	-0.984375 	0.5 	1750.36
0.242188 	-0.984375 	0.5 	1744.32
0.25 	-0.984375 	0.5 	1740.81
0.257812 	-0.984375 	0.5 	1731.56
0.265625 	-0.984375 	0.5 	1726.72
0.273438 	-0.984375 	0.5 	1722.34
0.28125 	-0.984375 	0.5 	1718.6
0.289062 	-0.984375 	0.5 	1713.58
0.296875 	-0.984375 	0.5 	1709.19
0.304688 	-0.984375 	0.5 	1704.8
0.3125 	-0.984375 	0.5 	1699.2
0.320312 	-0.984375 	0.5 	1691.77
0.328125 	-0.984375 	0.5 	1690.17
0.335938 	-0.984375 	0.5 	1685.68
0.34375 	-0.984375 	0.5 	1682.34
0.351562 	-0.984375 	0.5 	1677.49
0.359375 	-0.984375 	0.5 	1672.2
0.367188 	-0.984375 	0.5 	1666.92
0.375 	-0.984375 	0.5 	1660.89
0.382812 	-0.984375 	0.5 	1656.5
0.390625 	-0.984375 	0.5 	1651.77
0.398438 	-0.984375 	0.5 	1647.35
0.40625 	-0.984375 	0.5 	1642.47
0.414062 	-0.984375 	0.5 	1637.05
0.421875 	-0.984375 	0.5 	1637.46
0.429688 	-0.984375 	0.5 	1630.61
0.4375 	-0.984375 	0.5 	1627.03
0.445312 	-0.984375 	0.5 	1624.97
0.453125 	-0.984375 	0.5 	1623.56
0.460938 	-0.984375 	0.5 	1617.17
0.46875 	-0.984375 	0.5 	1612.53
0.476562 	-0.984375 	0.5 	1610.22
0.484375 	-0.984375 	0.5 	1607.65
0.492188 	-0.984375 	0.5 	1606
0.5 	-0.984375 	0.5 	1607.08
0.507812 	-0.984375 	0.5 	1609.24
0.515625 	-0.984375 	0.5 	1603.73
0.523438 	-0.984375 	0.5 	1599.7
0.53125 	-0.984375 	0.5 	1597.7
0.539062 	-0.984375 	0.5 	1596.27
0.546875 	-0.984375 	0.5 	1596.57
0.554688 	-0.984375 	0.5 	1593.84
0.5625 	-0.984375 	0.5 	1593.09
0.570312 	-0.984375 	0.5 	1594.68
0.578125 	-0.984375 	0.5 	1591.99
0.585938 	-0.984375 	0.5 	1588.87
0.59375 	-0.984375 	0.5 	1587.92
0.601562 	-0.984375 	0.5 	1589.34
0.609375 	-0.984375 	0.5 	1590.75
0.617188 	-0.984375 	0.5 	1590.8
0.625 	-0.984375 	0.5 	1593.05
0.632812 	-0.984375 	0.5 	1595.41
0.640625 	-0.984375 	0.5 	1598.39
0.648438 	-0.984375 	0.5 	1600.43
0.65625 	-0.984375 	0.5 	1599.86
0.664062 	-0.984375 	0.5 	1597.59
0.671875 	-0.984375 	0.5 	1594.03
0.679688 	-0.984375 	0.5 	1596.07
0.6875 	-0.984375 	0.5 	1601.63
0.695312 	-0.984375 	0.5 	1607.03
0.703125 	-0.984375 	0.5 	1606.96
0.710938 	-0.984375 	0.5 	1611.46
0.71875 	-0.984375 	0.5 	1618.37
0.726562 	-0.984375 	0.5 	1621.01
0.734375 	-0.984375 	0.5 	1623.65
0.742188 	-0.984375 	0.5 	1626.77
0.75 	-0.984375 	0.5 	1630.15
0.757812 	-0.984375 	0.5 	1634.08
0.765625 	-0.984375 	0.5 	1639.57
0.773438 	-0.984375 	0.5 	1644.35
0.78125 	-0.984375 	0.5 	1649.13
0.789062 	-0.984375 	0.5 	1653.91
0.796875 	-0.984375 	0.5 	1658.77
0.804688 	-0.984375 	0.5 	1661.13
0.8125 	-0.984375 	0.5 	1661.44
0.820312 	-0.984375 	0.5 	1666.09
0.828125 	-0.984375 	0.5 	1674.82
0.835938 	-0.984375 	0.5 	1679.15
0.84375 	-0.984375 	0.5 	1683.5
0.851562 	-0.984375 	0.5 	1691.73
0.859375 	-0.984375 	0.5 	1699.92
0.867188 	-0.984375 	0.5 	1708.04
0.875 	-0.984375 	0.5 	1714.33
0.882812 	-0.984375 	0.5 	1719.59
0.890625 	-0.984375 	0.5 	1725.82
0.898438 	-0.984375 	0.5 	1733.31
0.90625 	-0.984375 	0.5 	1739.91
0.914062 	-0.984375 	0.5 	1746.36
0.921875 	-0.984375 	0.5 	1753.36
0.929688 	-0.984375 	0.5 	1760.78
0.9375 	-0.984375 	0.5 	1768.39
0.945312 	-0.984375 	0.5 	1777.04
0.953125 	-0.984375 	0.5 	1784.88
0.960938 	-0.984375 	0.5 	1792.73
0.96875 	-0.984375 	0.5 	1799.95
0.976562 	-0.984375 	0.5 	1806.54
0.984375 	-0.984375 	0.5 	1815.74
0.992188 	-0.984375 	0.5 	1824.43
1 	-0.984375 	0.5 	1832.53
1.00781 	-0.984375 	0.5 	1843.02
1.01562 	-0.984375 	0.5 	1851.78
1.02344 	-0.984375 	0.5 	1857.78
1.03125 	-0.984375 	0.5 	1863.7
1.03906 	-0.984375 	0.5 	1871.33
1.04688 	-0.984375 	0.5 	1880.33
1.05469 	-0.984375 	0.5 	1889.07
1.0625 	-0.984375 	0.5 	1897.26
1.07031 	-0.984375 	0.5 	1904.79
1.07812 	-0.984375 	0.5 	1911.12
1.08594 	-0.984375 	0.5 	1919.78
1.09375 	-0.984375 	0.5 	1929.55
1.10156 	-0.984375 	0.5 	1937.51
1.10938 	-0.984375 	0.5 	1945.1
1.11719 	-0.984375 	0.5 	1954.32
1.125 	-0.984375 	0.5 	1959.68
1.13281 	-0.984375 	0.5 	1965.19
1.14062 	-0.984375 	0.5 	1974.25
1.14844 	-0.984375 	0.5 	1983.81
1.15625 	-0.984375 	0.5 	1992.71
1.16406 	-0.984375 	0.5 	1999.46
1.17188 	-0.984375 	0.5 	2005.86
1.17969 	-0.984375 	0.5 	2013.18
1.1875 	-0.984375 	0.5 	2020.5
1.19531 	-0.984375 	0.5 	2027.05
1.20312 	-0.984375 	0.5 	2035.08
1.21094 	-0.984375 	0.5 	2040.75
1.21875 	-0.984375 	0.5 	2048.06
1.22656 	-0.984375 	0.5 	2055.36
1.23438 	-0.984375 	0.5 	2062.66
1.24219 	-0.984375 	0.5 	2069.97
1.25 	-0.984375 	0.5 	2077.27
1.25781 	-0.984375 	0.5 	2085.19
1.26562 	-0.984375 	0.5 	2093.46
1.27344 	-0.984375 	0.5 	2101.73
1.28125 	-0.984375 	0.5 	2110
1.28906 	-0.984375 	0.5 	2118.27
1.29688 	-0.984375 	0.5 	2124.73
1.30469 	-0.984375 	0.5 	2129.79
1.3125 	-0.984375 	0.5 	2136.8
1.32031 	-0.984375 	0.5 	2141.57
1.32812 	-0.984375 	0.5 	2145.78
1.33594 	-0.984375 	0.5 	2151.34
1.34375 	-0.984375 	0.5 	2156.9
1.35156 	-0.984375 	0.5 	2162.85
1.35938 	-0.984375 	0.5 	2168.85
1.36719 	-0.984375 	0.5 	2174.56
1.375 	-0.984375 	0.5 	2179.65
1.38281 	-0.984375 	0.5 	2184.32
1.39062 	-0.984375 	0.5 	2187.64
1.39844 	-0.984375 	0.5 	2192.48
1.40625 	-0.984375 	0.5 	2198.39
1.41406 	-0.984375 	0.5 	2204.31
1.42188 	-0.984375 	0.5 	2210.22
1.42969 	-0.984375 	0.5 	2217.12
1.4375 	-0.984375 	0.5 	2222.74
1.44531 	-0.984375 	0.5 	2226.47
1.45312 	-0.984375 	0.5 	2230.59
1.46094 	-0.984375 	0.5 	2234.7
1.46875 	-0.984375 	0.5 	2238.82
1.47656 	-0.984375 	0.5 	2242.93
1.48438 	-0.984375 	0.5 	2247.09
1.49219 	-0.984375 	0.5 	2251.37
-0.5 	-0.976562 	0.5 	2183.09
-0.492188 	-0.976562 	0.5 	2179.93
-0.484375 	-0.976562 	0.5 	2178.41
-0.476562 	-0.976562 	0.5 	2176.26
-0.46875 	-0.976562 	0.5 	2173.35
-0.460938 	-0.976562 	0.5 	2170.26
-0.453125 	-0.976562 	0.5 	2167.51
-0.445312 	-0.976562 	0.5 	2165.46
-0.4375 	-0.976562 	0.5 	2163.4
-0.429688 	-0.976562 	0.5 	2159.95
-0.421875 	-0.976562 	0.5 	2156.25
-0.414062 	-0.976562 	0.5 	2153.33
-0.40625 	-0.976562 	0.5 	2150.43
-0.398438 	-0.976562 	0.5 	2147.22
-0.390625 	-0.976562 	0.5 	2143.97
-0.382812 	-0.976562 	0.5 	2140.6
-0.375 	-0.976562 	0.5 	2137.18
-0.367188 	-0.976562 	0.5 	2133.12
-0.359375 	-0.976562 	0.5 	2129.34
-0.351562 	-0.976562 	0.5 	2126.07
-0.34375 	-0.976562 	0.5 	2122.73
-0.335938 	-0.976562 	0.5 	2119.08
-0.328125 	-0.976562 	0.5 	2115.44
-0.320312 	-0.976562 	0.5 	2111.93
-0.3125 	-0.976562 	0.5 	2108.68
-0.304688 	-0.976562 	0.5 	2105.24
-0.296875 	-0.976562 	0.5 	2101.76
-0.289062 	-0.976562 	0.5 	2098.97
-0.28125 	-0.976562 	0.5 	2096.18
-0.273438 	-0.976562 	0.5 	2091.01
-0.265625 	-0.976562 	0.5 	2086.36
-0.257812 	-0.976562 	0.5 	2083.43
-0.25 	-0.976562 	0.5 	2080.17
-0.242188 	-0.976562 	0.5 	2075.5
-0.234375 	-0.976562 	0.5 	2070.83
-0.226562 	-0.976562 	0.5 	2066.16
-0.21875 	-0.976562 	0.5 	2061.77
-0.210938 	-0.976562 	0.5 	2057.38
-0.203125 	-0.976562 	0.5 	2052.93
-0.195312 	-0.976562 	0.5 	2048.5
-0.1875 	-0.976562 	0.5 	2044.07
-0.179688 	-0.976562 	0.5 	2039.76
-0.171875 	-0.976562 	0.5 	2035.35
-0.164062 	-0.976562 	0.5 	2030.73
-0.15625 	-0.976562 	0.5 	2025.98
-0.148438 	-0.976562 	0.5 	2021.16
-0.140625 	-0.976562 	0.5 	2016.34
-0.132812 	-0.976562 	0.5 	2011.37
-0.125 	-0.976562 	0.5 	2006.44
-0.117188 	-0.976562 	0.5 	2000.99
-0.109375 	-0.976562 	0.5 	1995.89
-0.101562 	-0.976562 	0.5 	1990.93
-0.09375 	-0.976562 	0.5 	1986.22
-0.085938 	-0.976562 	0.5 	1981.51
-0.078125 	-0.976562 	0.5 	1976.27
-0.070312 	-0.976562 	0.5 	1971.5
-0.0625 	-0.976562 	0.5 	1966.21
-0.054688 	-0.976562 	0.5 	1960.99
-0.046875 	-0.976562 	0.5 	1955.92
-0.039062 	-0.976562 	0.5 	1950.81
-0.03125 	-0.976562 	0.5 	1944.69
-0.023438 	-0.976562 	0.5 	1939.53
-0.015625 	-0.976562 	0.5 	1934.4
-0.007812 	-0.976562 	0.5 	1928.38
0 	-0.976562 	0.5 	1922.36
0.007812 	-0.976562 	0.5 	1916.5
0.015625 	-0.976562 	0.5 	1911.29
0.023438 	-0.976562 	0.5 	1905.84
0.03125 	-0.976562 	0.5 	1900.05
0.039062 	-0.976562 	0.5 	1894.62
0.046875 	-0.976562 	0.5 	1889.23
0.054688 	-0.976562 	0.5 	1883.84
0.0625 	-0.976562 	0.5 	1877.03
0.070312 	-0.976562 	0.5 	1870.75
0.078125 	-0.976562 	0.5 	1866.07
0.085938 	-0.976562 	0.5 	1859.67
0.09375 	-0.976562 	0.5 	1853.08
0.101562 	-0.976562 	0.5 	1846.54
0.109375 	-0.976562 	0.5 	1840.79
0.117188 	-0.976562 	0.5 	1835.23
0.125 	-0.976562 	0.5 	1828.56
0.132812 	-0.976562 	0.5 	1822.8
0.140625 	-0.976562 	0.5 	1816.97
0.148438 	-0.976562 	0.5 	1810.73
0.15625 	-0.976562 	0.5 	1804.49
0.164062 	-0.976562 	0.5 	1797.14
0.171875 	-0.976562 	0.5 	1791.79
0.179688 	-0.976562 	0.5 	1786.25
0.1875 	-0.976562 	0.5 	1780.34
0.195312 	-0.976562 	0.5 	1774.58
0.203125 	-0.976562 	0.5 	1769.92
0.210938 	-0.976562 	0.5 	1765.91
0.21875 	-0.976562 	0.5 	1760.79
0.226562 	-0.976562 	0.5 	1754.99
0.234375 	-0.976562 	0.5 	1747.66
0.242188 	-0.976562 	0.5 	1740.5
0.25 	-0.976562 	0.5 	1733.96
0.257812 	-0.976562 	0.5 	1728.93
0.265625 	-0.976562 	0.5 	1724.08
0.273438 	-0.976562 	0.5 	1718.03
0.28125 	-0.976562 	0.5 	1712.17
0.289062 	-0.976562 	0.5 	1707.35
0.296875 	-0.976562 	0.5 	1703.61
0.304688 	-0.976562 	0.5 	1699.16
0.3125 	-0.976562 	0.5 	1692.48
0.320312 	-0.976562 	0.5 	1684.13
0.328125 	-0.976562 	0.5 	1680.49
0.335938 	-0.976562 	0.5 	1678.88
0.34375 	-0.976562 	0.5 	1675.48
0.351562 	-0.976562 	0.5 	1670.44
0.359375 	-0.976562 	0.5 	1663.46
0.367188 	-0.976562 	0.5 	1654.67
0.375 	-0.976562 	0.5 	1652.01
0.382812 	-0.976562 	0.5 	1647.15
0.390625 	-0.976562 	0.5 	1644.15
0.398438 	-0.976562 	0.5 	1639.42
0.40625 	-0.976562 	0.5 	1634.94
0.414062 	-0.976562 	0.5 	1631.26
0.421875 	-0.976562 	0.5 	1626.75
0.429688 	-0.976562 	0.5 	1621.66
0.4375 	-0.976562 	0.5 	1617.81
0.445312 	-0.976562 	0.5 	1614.99
0.453125 	-0.976562 	0.5 	1611.43
0.460938 	-0.976562 	0.5 	1606.79
0.46875 	-0.976562 	0.5 	1602.34
0.476562 	-0.976562 	0.5 	1600.94
0.484375 	-0.976562 	0.5 	1598.39
0.492188 	-0.976562 	0.5 	1596.32
0.5 	-0.976562 	0.5 	1594.67
0.507812 	-0.976562 	0.5 	1596.02
0.515625 	-0.976562 	0.5 	1591.5
0.523438 	-0.976562 	0.5 	1590
0.53125 	-0.976562 	0.5 	1587.65
0.539062 	-0.976562 	0.5 	1585.22
0.546875 	-0.976562 	0.5 	1586.91
0.554688 	-0.976562 	0.5 	1585.68
0.5625 	-0.976562 	0.5 	1582.94
0.570312 	-0.976562 	0.5 	1580.34
0.578125 	-0.976562 	0.5 	1580.75
0.585938 	-0.976562 	0.5 	1577.99
0.59375 	-0.976562 	0.5 	1579.41
0.601562 	-0.976562 	0.5 	1579.18
0.609375 	-0.976562 	0.5 	1578.36
0.617188 	-0.976562 	0.5 	1578.73
0.625 	-0.976562 	0.5 	1583
0.632812 	-0.976562 	0.5 	1584.87
0.640625 	-0.976562 	0.5 	1586.43
0.648438 	-0.976562 	0.5 	1589.41
0.65625 	-0.976562 	0.5 	1589.76
0.664062 	-0.976562 	0.5 	1587.32
0.671875 	-0.976562 	0.5 	1586.85
0.679688 	-0.976562 	0.5 	1592.42
0.6875 	-0.976562 	0.5 	1593.37
0.695312 	-0.976562 	0.5 	1591.86
0.703125 	-0.976562 	0.5 	1596.41
0.710938 	-0.976562 	0.5 	1601.76
0.71875 	-0.976562 	0.5 	1606.56
0.726562 	-0.976562 	0.5 	1615.47
0.734375 	-0.976562 	0.5 	1619.07
0.742188 	-0.976562 	0.5 	1621.23
0.75 	-0.976562 	0.5 	1621.71
0.757812 	-0.976562 	0.5 	1624.4
0.765625 	-0.976562 	0.5 	1629.86
0.773438 	-0.976562 	0.5 	1634.63
0.78125 	-0.976562 	0.5 	1639.41
0.789062 	-0.976562 	0.5 	1644.18
0.796875 	-0.976562 	0.5 	1649.03
0.804688 	-0.976562 	0.5 	1653.37
0.8125 	-0.976562 	0.5 	1653.67
0.820312 	-0.976562 	0.5 	1659.99
0.828125 	-0.976562 	0.5 	1665.8
0.835938 	-0.976562 	0.5 	1669.21
0.84375 	-0.976562 	0.5 	1674.21
0.851562 	-0.976562 	0.5 	1682.44
0.859375 	-0.976562 	0.5 	1690.68
0.867188 	-0.976562 	0.5 	1698.81
0.875 	-0.976562 	0.5 	1704.68
0.882812 	-0.976562 	0.5 	1710.89
0.890625 	-0.976562 	0.5 	1718.62
0.898438 	-0.976562 	0.5 	1725.84
0.90625 	-0.976562 	0.5 	1732.48